<?xml version="1.0" encoding="UTF-8"?>

<!-- generated on 2024-12-01 13:38:19 by Eclipse SUMO GUI Version 1.20.0
<configuration xmlns:xsi="http://www.w3.org/2001/XMLSchema-instance" xsi:noNamespaceSchemaLocation="http://sumo.dlr.de/xsd/sumoConfiguration.xsd">

    <input>
        <net-file value="C:/Users/onurd/OneDrive/Masaüstü/PhD/codingPractices/progress-report-dec-2024/data/railway_networks/basic_railway.net.xml"/>
        <route-files value="C:/Users/onurd/OneDrive/Masaüstü/PhD/codingPractices/progress-report-dec-2024/data/railway_networks/basic_railway_routes.rou.xml"/>
    </input>

    <output>
        <tripinfo-output value="C:/Users/onurd/OneDrive/Masaüstü/PhD/codingPractices/progress-report-dec-2024/data/railway_networks/../../outputs/tripinfo.xml"/>
    </output>

    <time>
        <begin value="0"/>
        <end value="100"/>
    </time>

</configuration>
-->

<tripinfos xmlns:xsi="http://www.w3.org/2001/XMLSchema-instance" xsi:noNamespaceSchemaLocation="http://sumo.dlr.de/xsd/tripinfo_file.xsd">
</tripinfos>
